/home/cbousige/Boro_ML/validation/tests-energyMD/001-alpha_1L_3x5_3Ag_fcc111_F2_0deg_nve_withPE/structure.data

510 	 atoms 
2  atom types
0.0      25.998689998632624  xlo xhi
0.0      25.017251115480295  ylo yhi
0.0                      25  zlo zhi


Masses 

1   10.81
2   107.8682


Atoms 

     1   1                       0      1.6678167410320197      7.1672981094407566
     2   1                       0      3.3356334820640394      7.1672981094407566
     3   1      1.4443716665907018     0.83390837051600986      7.1672981094407566
     4   1      1.4443716665907018      2.5017251115480295      7.1672981094407566
     5   1      1.4443716665907018      4.1695418525800498      7.1672981094407566
     6   1      2.8887433331814028                       0      7.1672981094407566
     7   1      2.8887433331814028      1.6678167410320197      7.1672981094407566
     8   1      2.8887433331814028      3.3356334820640394      7.1672981094407566
     9   1      4.3331149997721035     0.83390837051600986      7.1672981094407566
    10   1      4.3331149997721035      4.1695418525800498      7.1672981094407566
    11   1      5.7774866663628055                       0      7.1672981094407566
    12   1      5.7774866663628055      1.6678167410320197      7.1672981094407566
    13   1      5.7774866663628055      3.3356334820640394      7.1672981094407566
    14   1      7.2218583329535067     0.83390837051600986      7.1672981094407566
    15   1      7.2218583329535067      2.5017251115480295      7.1672981094407566
    16   1      7.2218583329535067      4.1695418525800498      7.1672981094407566
    17   1                       0      6.6712669641280788      7.1672981094407566
    18   1                       0      8.3390837051600997      7.1672981094407566
    19   1      1.4443716665907018      5.8373585936120689      7.1672981094407566
    20   1      1.4443716665907018      7.5051753346440879      7.1672981094407566
    21   1      1.4443716665907018      9.1729920756761079      7.1672981094407566
    22   1      2.8887433331814028      5.0034502230960598      7.1672981094407566
    23   1      2.8887433331814028      6.6712669641280788      7.1672981094407566
    24   1      2.8887433331814028      8.3390837051600997      7.1672981094407566
    25   1      4.3331149997721035      5.8373585936120689      7.1672981094407566
    26   1      4.3331149997721035      9.1729920756761079      7.1672981094407566
    27   1      5.7774866663628055      5.0034502230960598      7.1672981094407566
    28   1      5.7774866663628055      6.6712669641280788      7.1672981094407566
    29   1      5.7774866663628055      8.3390837051600997      7.1672981094407566
    30   1      7.2218583329535067      5.8373585936120689      7.1672981094407566
    31   1      7.2218583329535067      7.5051753346440879      7.1672981094407566
    32   1      7.2218583329535067      9.1729920756761079      7.1672981094407566
    33   1                       0      11.674717187224138      7.1672981094407566
    34   1                       0      13.342533928256158      7.1672981094407566
    35   1      1.4443716665907018      10.840808816708128      7.1672981094407566
    36   1      1.4443716665907018      12.508625557740146      7.1672981094407566
    37   1      1.4443716665907018      14.176442298772169      7.1672981094407566
    38   1      2.8887433331814028       10.00690044619212      7.1672981094407566
    39   1      2.8887433331814028      11.674717187224138      7.1672981094407566
    40   1      2.8887433331814028      13.342533928256158      7.1672981094407566
    41   1      4.3331149997721035      10.840808816708128      7.1672981094407566
    42   1      4.3331149997721035      14.176442298772169      7.1672981094407566
    43   1      5.7774866663628055       10.00690044619212      7.1672981094407566
    44   1      5.7774866663628055      11.674717187224138      7.1672981094407566
    45   1      5.7774866663628055      13.342533928256158      7.1672981094407566
    46   1      7.2218583329535067      10.840808816708128      7.1672981094407566
    47   1      7.2218583329535067      12.508625557740146      7.1672981094407566
    48   1      7.2218583329535067      14.176442298772169      7.1672981094407566
    49   1                       0      16.678167410320199      7.1672981094407566
    50   1                       0      18.345984151352216      7.1672981094407566
    51   1      1.4443716665907018      15.844259039804189      7.1672981094407566
    52   1      1.4443716665907018      17.512075780836209      7.1672981094407566
    53   1      1.4443716665907018      19.179892521868229      7.1672981094407566
    54   1      2.8887433331814028      15.010350669288179      7.1672981094407566
    55   1      2.8887433331814028      16.678167410320199      7.1672981094407566
    56   1      2.8887433331814028      18.345984151352216      7.1672981094407566
    57   1      4.3331149997721035      15.844259039804189      7.1672981094407566
    58   1      4.3331149997721035      19.179892521868229      7.1672981094407566
    59   1      5.7774866663628055      15.010350669288179      7.1672981094407566
    60   1      5.7774866663628055      16.678167410320199      7.1672981094407566
    61   1      5.7774866663628055      18.345984151352216      7.1672981094407566
    62   1      7.2218583329535067      15.844259039804189      7.1672981094407566
    63   1      7.2218583329535067      17.512075780836209      7.1672981094407566
    64   1      7.2218583329535067      19.179892521868229      7.1672981094407566
    65   1                       0      21.681617633416256      7.1672981094407566
    66   1                       0      23.349434374448276      7.1672981094407566
    67   1      1.4443716665907018      20.847709262900246      7.1672981094407566
    68   1      1.4443716665907018      22.515526003932266      7.1672981094407566
    69   1      1.4443716665907018      24.183342744964285      7.1672981094407566
    70   1      2.8887433331814028      20.013800892384239      7.1672981094407566
    71   1      2.8887433331814028      21.681617633416256      7.1672981094407566
    72   1      2.8887433331814028      23.349434374448276      7.1672981094407566
    73   1      4.3331149997721035      20.847709262900246      7.1672981094407566
    74   1      4.3331149997721035      24.183342744964285      7.1672981094407566
    75   1      5.7774866663628055      20.013800892384239      7.1672981094407566
    76   1      5.7774866663628055      21.681617633416256      7.1672981094407566
    77   1      5.7774866663628055      23.349434374448276      7.1672981094407566
    78   1      7.2218583329535067      20.847709262900246      7.1672981094407566
    79   1      7.2218583329535067      22.515526003932266      7.1672981094407566
    80   1      7.2218583329535067      24.183342744964285      7.1672981094407566
    81   1      8.6662299995442105      1.6678167410320197      7.1672981094407566
    82   1      8.6662299995442105      3.3356334820640394      7.1672981094407566
    83   1      10.110601666134912     0.83390837051600986      7.1672981094407566
    84   1      10.110601666134912      2.5017251115480295      7.1672981094407566
    85   1      10.110601666134912      4.1695418525800498      7.1672981094407566
    86   1      11.554973332725611                       0      7.1672981094407566
    87   1      11.554973332725611      1.6678167410320197      7.1672981094407566
    88   1      11.554973332725611      3.3356334820640394      7.1672981094407566
    89   1       12.99934499931631     0.83390837051600986      7.1672981094407566
    90   1       12.99934499931631      4.1695418525800498      7.1672981094407566
    91   1      14.443716665907013                       0      7.1672981094407566
    92   1      14.443716665907013      1.6678167410320197      7.1672981094407566
    93   1      14.443716665907013      3.3356334820640394      7.1672981094407566
    94   1      15.888088332497716     0.83390837051600986      7.1672981094407566
    95   1      15.888088332497716      2.5017251115480295      7.1672981094407566
    96   1      15.888088332497716      4.1695418525800498      7.1672981094407566
    97   1      8.6662299995442105      6.6712669641280788      7.1672981094407566
    98   1      8.6662299995442105      8.3390837051600997      7.1672981094407566
    99   1      10.110601666134912      5.8373585936120689      7.1672981094407566
   100   1      10.110601666134912      7.5051753346440879      7.1672981094407566
   101   1      10.110601666134912      9.1729920756761079      7.1672981094407566
   102   1      11.554973332725611      5.0034502230960598      7.1672981094407566
   103   1      11.554973332725611      6.6712669641280788      7.1672981094407566
   104   1      11.554973332725611      8.3390837051600997      7.1672981094407566
   105   1       12.99934499931631      5.8373585936120689      7.1672981094407566
   106   1       12.99934499931631      9.1729920756761079      7.1672981094407566
   107   1      14.443716665907013      5.0034502230960598      7.1672981094407566
   108   1      14.443716665907013      6.6712669641280788      7.1672981094407566
   109   1      14.443716665907013      8.3390837051600997      7.1672981094407566
   110   1      15.888088332497716      5.8373585936120689      7.1672981094407566
   111   1      15.888088332497716      7.5051753346440879      7.1672981094407566
   112   1      15.888088332497716      9.1729920756761079      7.1672981094407566
   113   1      8.6662299995442105      11.674717187224138      7.1672981094407566
   114   1      8.6662299995442105      13.342533928256158      7.1672981094407566
   115   1      10.110601666134912      10.840808816708128      7.1672981094407566
   116   1      10.110601666134912      12.508625557740146      7.1672981094407566
   117   1      10.110601666134912      14.176442298772169      7.1672981094407566
   118   1      11.554973332725611       10.00690044619212      7.1672981094407566
   119   1      11.554973332725611      11.674717187224138      7.1672981094407566
   120   1      11.554973332725611      13.342533928256158      7.1672981094407566
   121   1       12.99934499931631      10.840808816708128      7.1672981094407566
   122   1       12.99934499931631      14.176442298772169      7.1672981094407566
   123   1      14.443716665907013       10.00690044619212      7.1672981094407566
   124   1      14.443716665907013      11.674717187224138      7.1672981094407566
   125   1      14.443716665907013      13.342533928256158      7.1672981094407566
   126   1      15.888088332497716      10.840808816708128      7.1672981094407566
   127   1      15.888088332497716      12.508625557740146      7.1672981094407566
   128   1      15.888088332497716      14.176442298772169      7.1672981094407566
   129   1      8.6662299995442105      16.678167410320199      7.1672981094407566
   130   1      8.6662299995442105      18.345984151352216      7.1672981094407566
   131   1      10.110601666134912      15.844259039804189      7.1672981094407566
   132   1      10.110601666134912      17.512075780836209      7.1672981094407566
   133   1      10.110601666134912      19.179892521868229      7.1672981094407566
   134   1      11.554973332725611      15.010350669288179      7.1672981094407566
   135   1      11.554973332725611      16.678167410320199      7.1672981094407566
   136   1      11.554973332725611      18.345984151352216      7.1672981094407566
   137   1       12.99934499931631      15.844259039804189      7.1672981094407566
   138   1       12.99934499931631      19.179892521868229      7.1672981094407566
   139   1      14.443716665907013      15.010350669288179      7.1672981094407566
   140   1      14.443716665907013      16.678167410320199      7.1672981094407566
   141   1      14.443716665907013      18.345984151352216      7.1672981094407566
   142   1      15.888088332497716      15.844259039804189      7.1672981094407566
   143   1      15.888088332497716      17.512075780836209      7.1672981094407566
   144   1      15.888088332497716      19.179892521868229      7.1672981094407566
   145   1      8.6662299995442105      21.681617633416256      7.1672981094407566
   146   1      8.6662299995442105      23.349434374448276      7.1672981094407566
   147   1      10.110601666134912      20.847709262900246      7.1672981094407566
   148   1      10.110601666134912      22.515526003932266      7.1672981094407566
   149   1      10.110601666134912      24.183342744964285      7.1672981094407566
   150   1      11.554973332725611      20.013800892384239      7.1672981094407566
   151   1      11.554973332725611      21.681617633416256      7.1672981094407566
   152   1      11.554973332725611      23.349434374448276      7.1672981094407566
   153   1       12.99934499931631      20.847709262900246      7.1672981094407566
   154   1       12.99934499931631      24.183342744964285      7.1672981094407566
   155   1      14.443716665907013      20.013800892384239      7.1672981094407566
   156   1      14.443716665907013      21.681617633416256      7.1672981094407566
   157   1      14.443716665907013      23.349434374448276      7.1672981094407566
   158   1      15.888088332497716      20.847709262900246      7.1672981094407566
   159   1      15.888088332497716      22.515526003932266      7.1672981094407566
   160   1      15.888088332497716      24.183342744964285      7.1672981094407566
   161   1      17.332459999088421      1.6678167410320197      7.1672981094407566
   162   1      17.332459999088421      3.3356334820640394      7.1672981094407566
   163   1      18.776831665679119     0.83390837051600986      7.1672981094407566
   164   1      18.776831665679119      2.5017251115480295      7.1672981094407566
   165   1      18.776831665679119      4.1695418525800498      7.1672981094407566
   166   1      20.221203332269823                       0      7.1672981094407566
   167   1      20.221203332269823      1.6678167410320197      7.1672981094407566
   168   1      20.221203332269823      3.3356334820640394      7.1672981094407566
   169   1      21.665574998860521     0.83390837051600986      7.1672981094407566
   170   1      21.665574998860521      4.1695418525800498      7.1672981094407566
   171   1      23.109946665451222                       0      7.1672981094407566
   172   1      23.109946665451222      1.6678167410320197      7.1672981094407566
   173   1      23.109946665451222      3.3356334820640394      7.1672981094407566
   174   1       24.55431833204192     0.83390837051600986      7.1672981094407566
   175   1       24.55431833204192      2.5017251115480295      7.1672981094407566
   176   1       24.55431833204192      4.1695418525800498      7.1672981094407566
   177   1      17.332459999088421      6.6712669641280788      7.1672981094407566
   178   1      17.332459999088421      8.3390837051600997      7.1672981094407566
   179   1      18.776831665679119      5.8373585936120689      7.1672981094407566
   180   1      18.776831665679119      7.5051753346440879      7.1672981094407566
   181   1      18.776831665679119      9.1729920756761079      7.1672981094407566
   182   1      20.221203332269823      5.0034502230960598      7.1672981094407566
   183   1      20.221203332269823      6.6712669641280788      7.1672981094407566
   184   1      20.221203332269823      8.3390837051600997      7.1672981094407566
   185   1      21.665574998860521      5.8373585936120689      7.1672981094407566
   186   1      21.665574998860521      9.1729920756761079      7.1672981094407566
   187   1      23.109946665451222      5.0034502230960598      7.1672981094407566
   188   1      23.109946665451222      6.6712669641280788      7.1672981094407566
   189   1      23.109946665451222      8.3390837051600997      7.1672981094407566
   190   1       24.55431833204192      5.8373585936120689      7.1672981094407566
   191   1       24.55431833204192      7.5051753346440879      7.1672981094407566
   192   1       24.55431833204192      9.1729920756761079      7.1672981094407566
   193   1      17.332459999088421      11.674717187224138      7.1672981094407566
   194   1      17.332459999088421      13.342533928256158      7.1672981094407566
   195   1      18.776831665679119      10.840808816708128      7.1672981094407566
   196   1      18.776831665679119      12.508625557740146      7.1672981094407566
   197   1      18.776831665679119      14.176442298772169      7.1672981094407566
   198   1      20.221203332269823       10.00690044619212      7.1672981094407566
   199   1      20.221203332269823      11.674717187224138      7.1672981094407566
   200   1      20.221203332269823      13.342533928256158      7.1672981094407566
   201   1      21.665574998860521      10.840808816708128      7.1672981094407566
   202   1      21.665574998860521      14.176442298772169      7.1672981094407566
   203   1      23.109946665451222       10.00690044619212      7.1672981094407566
   204   1      23.109946665451222      11.674717187224138      7.1672981094407566
   205   1      23.109946665451222      13.342533928256158      7.1672981094407566
   206   1       24.55431833204192      10.840808816708128      7.1672981094407566
   207   1       24.55431833204192      12.508625557740146      7.1672981094407566
   208   1       24.55431833204192      14.176442298772169      7.1672981094407566
   209   1      17.332459999088421      16.678167410320199      7.1672981094407566
   210   1      17.332459999088421      18.345984151352216      7.1672981094407566
   211   1      18.776831665679119      15.844259039804189      7.1672981094407566
   212   1      18.776831665679119      17.512075780836209      7.1672981094407566
   213   1      18.776831665679119      19.179892521868229      7.1672981094407566
   214   1      20.221203332269823      15.010350669288179      7.1672981094407566
   215   1      20.221203332269823      16.678167410320199      7.1672981094407566
   216   1      20.221203332269823      18.345984151352216      7.1672981094407566
   217   1      21.665574998860521      15.844259039804189      7.1672981094407566
   218   1      21.665574998860521      19.179892521868229      7.1672981094407566
   219   1      23.109946665451222      15.010350669288179      7.1672981094407566
   220   1      23.109946665451222      16.678167410320199      7.1672981094407566
   221   1      23.109946665451222      18.345984151352216      7.1672981094407566
   222   1       24.55431833204192      15.844259039804189      7.1672981094407566
   223   1       24.55431833204192      17.512075780836209      7.1672981094407566
   224   1       24.55431833204192      19.179892521868229      7.1672981094407566
   225   1      17.332459999088421      21.681617633416256      7.1672981094407566
   226   1      17.332459999088421      23.349434374448276      7.1672981094407566
   227   1      18.776831665679119      20.847709262900246      7.1672981094407566
   228   1      18.776831665679119      22.515526003932266      7.1672981094407566
   229   1      18.776831665679119      24.183342744964285      7.1672981094407566
   230   1      20.221203332269823      20.013800892384239      7.1672981094407566
   231   1      20.221203332269823      21.681617633416256      7.1672981094407566
   232   1      20.221203332269823      23.349434374448276      7.1672981094407566
   233   1      21.665574998860521      20.847709262900246      7.1672981094407566
   234   1      21.665574998860521      24.183342744964285      7.1672981094407566
   235   1      23.109946665451222      20.013800892384239      7.1672981094407566
   236   1      23.109946665451222      21.681617633416256      7.1672981094407566
   237   1      23.109946665451222      23.349434374448276      7.1672981094407566
   238   1       24.55431833204192      20.847709262900246      7.1672981094407566
   239   1       24.55431833204192      22.515526003932266      7.1672981094407566
   240   1       24.55431833204192      24.183342744964285      7.1672981094407566
   241   2      1.4443716665907014     0.83390837051600963                       0
   242   2                       0      3.3356334820640385                       0
   243   2                       0      1.6678167410320193      2.3586490547203782
   244   2      1.4443716665907014      4.1695418525800481      2.3586490547203782
   245   2                       0                       0      4.7172981094407564
   246   2      1.4443716665907014      2.5017251115480295      4.7172981094407564
   247   2      1.4443716665907014      5.8373585936120689                       0
   248   2                       0      8.3390837051600997                       0
   249   2                       0      6.6712669641280788      2.3586490547203782
   250   2      1.4443716665907014      9.1729920756761096      2.3586490547203782
   251   2                       0      5.0034502230960598      4.7172981094407564
   252   2      1.4443716665907014      7.5051753346440897      4.7172981094407564
   253   2      1.4443716665907014      10.840808816708128                       0
   254   2                       0      13.342533928256158                       0
   255   2                       0      11.674717187224138      2.3586490547203782
   256   2      1.4443716665907014      14.176442298772168      2.3586490547203782
   257   2                       0       10.00690044619212      4.7172981094407564
   258   2      1.4443716665907014      12.508625557740146      4.7172981094407564
   259   2      1.4443716665907014      15.844259039804189                       0
   260   2                       0      18.345984151352219                       0
   261   2                       0      16.678167410320199      2.3586490547203782
   262   2      1.4443716665907014      19.179892521868229      2.3586490547203782
   263   2                       0      15.010350669288179      4.7172981094407564
   264   2      1.4443716665907014      17.512075780836209      4.7172981094407564
   265   2      1.4443716665907014      20.847709262900246                       0
   266   2                       0      23.349434374448276                       0
   267   2                       0      21.681617633416256      2.3586490547203782
   268   2      1.4443716665907014      24.183342744964285      2.3586490547203782
   269   2                       0      20.013800892384239      4.7172981094407564
   270   2      1.4443716665907014      22.515526003932266      4.7172981094407564
   271   2      4.3331149997721043     0.83390837051600963                       0
   272   2      2.8887433331814028      3.3356334820640385                       0
   273   2      2.8887433331814028      1.6678167410320193      2.3586490547203782
   274   2      4.3331149997721043      4.1695418525800481      2.3586490547203782
   275   2      2.8887433331814028                       0      4.7172981094407564
   276   2      4.3331149997721043      2.5017251115480295      4.7172981094407564
   277   2      4.3331149997721043      5.8373585936120689                       0
   278   2      2.8887433331814028      8.3390837051600997                       0
   279   2      2.8887433331814028      6.6712669641280788      2.3586490547203782
   280   2      4.3331149997721043      9.1729920756761096      2.3586490547203782
   281   2      2.8887433331814028      5.0034502230960598      4.7172981094407564
   282   2      4.3331149997721043      7.5051753346440897      4.7172981094407564
   283   2      4.3331149997721043      10.840808816708128                       0
   284   2      2.8887433331814028      13.342533928256158                       0
   285   2      2.8887433331814028      11.674717187224138      2.3586490547203782
   286   2      4.3331149997721043      14.176442298772168      2.3586490547203782
   287   2      2.8887433331814028       10.00690044619212      4.7172981094407564
   288   2      4.3331149997721043      12.508625557740146      4.7172981094407564
   289   2      4.3331149997721043      15.844259039804189                       0
   290   2      2.8887433331814028      18.345984151352219                       0
   291   2      2.8887433331814028      16.678167410320199      2.3586490547203782
   292   2      4.3331149997721043      19.179892521868229      2.3586490547203782
   293   2      2.8887433331814028      15.010350669288179      4.7172981094407564
   294   2      4.3331149997721043      17.512075780836209      4.7172981094407564
   295   2      4.3331149997721043      20.847709262900246                       0
   296   2      2.8887433331814028      23.349434374448276                       0
   297   2      2.8887433331814028      21.681617633416256      2.3586490547203782
   298   2      4.3331149997721043      24.183342744964285      2.3586490547203782
   299   2      2.8887433331814028      20.013800892384239      4.7172981094407564
   300   2      4.3331149997721043      22.515526003932266      4.7172981094407564
   301   2      7.2218583329535067     0.83390837051600963                       0
   302   2      5.7774866663628055      3.3356334820640385                       0
   303   2      5.7774866663628055      1.6678167410320193      2.3586490547203782
   304   2      7.2218583329535067      4.1695418525800481      2.3586490547203782
   305   2      5.7774866663628055                       0      4.7172981094407564
   306   2      7.2218583329535067      2.5017251115480295      4.7172981094407564
   307   2      7.2218583329535067      5.8373585936120689                       0
   308   2      5.7774866663628055      8.3390837051600997                       0
   309   2      5.7774866663628055      6.6712669641280788      2.3586490547203782
   310   2      7.2218583329535067      9.1729920756761096      2.3586490547203782
   311   2      5.7774866663628055      5.0034502230960598      4.7172981094407564
   312   2      7.2218583329535067      7.5051753346440897      4.7172981094407564
   313   2      7.2218583329535067      10.840808816708128                       0
   314   2      5.7774866663628055      13.342533928256158                       0
   315   2      5.7774866663628055      11.674717187224138      2.3586490547203782
   316   2      7.2218583329535067      14.176442298772168      2.3586490547203782
   317   2      5.7774866663628055       10.00690044619212      4.7172981094407564
   318   2      7.2218583329535067      12.508625557740146      4.7172981094407564
   319   2      7.2218583329535067      15.844259039804189                       0
   320   2      5.7774866663628055      18.345984151352219                       0
   321   2      5.7774866663628055      16.678167410320199      2.3586490547203782
   322   2      7.2218583329535067      19.179892521868229      2.3586490547203782
   323   2      5.7774866663628055      15.010350669288179      4.7172981094407564
   324   2      7.2218583329535067      17.512075780836209      4.7172981094407564
   325   2      7.2218583329535067      20.847709262900246                       0
   326   2      5.7774866663628055      23.349434374448276                       0
   327   2      5.7774866663628055      21.681617633416256      2.3586490547203782
   328   2      7.2218583329535067      24.183342744964285      2.3586490547203782
   329   2      5.7774866663628055      20.013800892384239      4.7172981094407564
   330   2      7.2218583329535067      22.515526003932266      4.7172981094407564
   331   2      10.110601666134908     0.83390837051600963                       0
   332   2      8.6662299995442069      3.3356334820640385                       0
   333   2      8.6662299995442069      1.6678167410320193      2.3586490547203782
   334   2      10.110601666134908      4.1695418525800481      2.3586490547203782
   335   2      8.6662299995442069                       0      4.7172981094407564
   336   2      10.110601666134908      2.5017251115480295      4.7172981094407564
   337   2      10.110601666134908      5.8373585936120689                       0
   338   2      8.6662299995442069      8.3390837051600997                       0
   339   2      8.6662299995442069      6.6712669641280788      2.3586490547203782
   340   2      10.110601666134908      9.1729920756761096      2.3586490547203782
   341   2      8.6662299995442069      5.0034502230960598      4.7172981094407564
   342   2      10.110601666134908      7.5051753346440897      4.7172981094407564
   343   2      10.110601666134908      10.840808816708128                       0
   344   2      8.6662299995442069      13.342533928256158                       0
   345   2      8.6662299995442069      11.674717187224138      2.3586490547203782
   346   2      10.110601666134908      14.176442298772168      2.3586490547203782
   347   2      8.6662299995442069       10.00690044619212      4.7172981094407564
   348   2      10.110601666134908      12.508625557740146      4.7172981094407564
   349   2      10.110601666134908      15.844259039804189                       0
   350   2      8.6662299995442069      18.345984151352219                       0
   351   2      8.6662299995442069      16.678167410320199      2.3586490547203782
   352   2      10.110601666134908      19.179892521868229      2.3586490547203782
   353   2      8.6662299995442069      15.010350669288179      4.7172981094407564
   354   2      10.110601666134908      17.512075780836209      4.7172981094407564
   355   2      10.110601666134908      20.847709262900246                       0
   356   2      8.6662299995442069      23.349434374448276                       0
   357   2      8.6662299995442069      21.681617633416256      2.3586490547203782