################################################################################
# Symmetry function scaling data.
################################################################################
# Col  Name     Description
################################################################################
# 1    e_index  Element index.
# 2    sf_index Symmetry function index.
# 3    sf_min   Symmetry function minimum.
# 4    sf_max   Symmetry function maximum.
# 5    sf_mean  Symmetry function mean.
# 6    sf_sigma Symmetry function sigma.
#########################################################################################################################
#        1          2                        3                        4                        5                        6
#  e_index   sf_index                   sf_min                   sf_max                  sf_mean                 sf_sigma
#########################################################################################################################
         1          1   1.3195044420832858E+00   1.8103972532236565E+01   1.0633886002579267E+01   2.0980328233908265E+00
         1          2   8.4531572171827871E-02   9.5576784478076107E+00   2.7043379286445806E+00   1.0502899429960095E+00
         1          3   9.8538912424903813E-01   1.3974688972133201E+01   8.0979058014027903E+00   1.6164528463655705E+00
         1          4   3.6105618353810952E-02   7.1237180776670268E+00   1.7916696489297408E+00   7.6320995991210472E-01
         1          5   6.5697225343627341E-01   1.0878503661253941E+01   6.2224939252628948E+00   1.2655959955950651E+00
         1          6   1.4176803860885320E-02   5.3261474185358555E+00   1.1845449826931456E+00   5.6037006231978981E-01
         1          7   2.1915038348962204E-01   5.9884754571704226E+00   3.3362279266146651E+00   7.4088306202052479E-01
         1          8   9.0051639715332040E-04   2.7363509406303614E+00   4.1826693203858611E-01   2.6719919857875046E-01
         1          9   8.2932436473149207E-01   1.3542835267087412E+01   7.7395111684059099E+00   1.5471533090970564E+00
         1         10   1.0081151307393730E-02   6.7674575635877900E+00   1.4595166344881105E+00   7.1306346503456697E-01
         1         11   4.1740827024100056E-02   3.2735889432313057E+00   1.5761458598197831E+00   4.1888809968607194E-01
         1         12   8.3859400827712870E-06   1.2474164311734328E+00   1.0814425663870438E-01   1.0520631570859053E-01
         1         13   5.2645335476027566E-01   1.1226990001003729E+01   6.3120766337603449E+00   1.2882661015786103E+00
         1         14   1.1695275505191735E-03   5.2859082782667546E+00   9.4588912882945475E-01   5.6457187344329540E-01
         1         15   1.8107152516231985E-03   1.5122608637455794E+00   5.0539713365649197E-01   1.8227065765980932E-01
         1         16   7.3927809728348890E-10   4.7956162016214654E-01   1.3484067996027136E-02   2.6524961878299256E-02
         1         17   2.4589695420918997E-01   9.0534411390383873E+00   4.9964640330813515E+00   1.0674451044877802E+00
         1         18   1.2960132434841901E-05   4.1559332851719120E+00   5.3407195345220504E-01   4.2750593189886621E-01
         1         19   3.2882636548049529E-02   7.1015351286113297E+00   3.8709353980260524E+00   9.2153415000017447E-01
         1         20   2.5862853092906048E-11   2.8833180699067178E+00   2.0435283618545114E-01   2.7265415214218441E-01
         1         21   2.7463435283849626E-03   6.1294083707797622E+00   3.5115087822721067E+00   9.4350416637150369E-01
         1         22   5.4928487157712820E-19   2.6633733711095444E+00   9.7094786207500783E-02   1.9997266678099465E-01
         1         23   5.2294710758363119E-06   3.6740785726465745E+01   1.1313754841868164E+01   5.0287634400604206E+00
         1         24   3.4771003748103720E-02   1.8984512319141217E+01   4.3676912715109468E+00   2.1902533825986352E+00
         1         25   7.8764560129338752E-05   7.0303395959860842E+00   4.8598458331103045E-01   4.6210113247412232E-01
         1         26   5.5824068788205594E-01   8.3294384823538465E+01   2.8511656554411381E+01   1.2352849538606257E+01
         1         27   1.6825728668366952E-01   3.9173827739915367E+01   8.8456015308401739E+00   4.1334230882231449E+00
         1         28   4.6936601071010010E-04   2.0849262557275992E+01   2.0490063591839638E+00   1.5408657364883835E+00
         1         29   6.5610503276123648E-11   1.9472733881930470E+01   6.2213188996487609E+00   2.7997294715711192E+00
         1         30   8.0566335324965040E-03   1.0216766015584597E+01   1.9718123856660201E+00   1.1349467526903569E+00
         1         31   1.2268212501385607E-05   3.3998554072666156E+00   1.2755406729373023E-01   1.7897982179236846E-01
         1         32   5.1785683827988882E-01   6.6189164969865374E+01   2.3419220612192017E+01   1.0091502890891455E+01
         1         33   1.4071661793220303E-01   2.9380291999309723E+01   6.4497226449952363E+00   3.0852525368497918E+00
         1         34   4.0286966308214695E-04   1.7518891015051576E+01   1.6905758431666553E+00   1.2568674669064910E+00
         1         35   2.3748629971419760E-20   1.1195204347031405E+01   3.4243213758868101E+00   1.6133465489425503E+00
         1         36   7.4729775153116538E-04   6.1612010404562678E+00   6.7809761274549663E-01   5.2367129148506242E-01
         1         37   3.2516361434756209E-07   1.6192741777414832E+00   2.0181382927733860E-02   6.9068144016778174E-02
         1         38   4.4716433010238121E-01   4.7809023950569596E+01   1.7843608910346020E+01   7.6537372099039294E+00
         1         39   8.2323910581323906E-02   1.8925750537425209E+01   3.9124279740566386E+00   2.0023673523883061E+00
         1         40   2.9908174412365726E-04   1.3713427015081018E+01   1.1987679069603916E+00   9.0384754371731890E-01
         1         41   4.2226675444854052E-06   3.1513036723159761E+01   9.6401070392632313E+00   4.3236113076002978E+00
         1         42   2.3403539869645384E-02   1.5834795580324846E+01   3.5578261128221431E+00   1.8376176749616226E+00
         1         43   4.6052598212393784E-05   5.9443437947831290E+00   3.8655732591486008E-01   3.7771648553626691E-01
         1         44   4.6061928179751555E-01   7.1468793705534708E+01   2.4320544139856597E+01   1.0604490590844312E+01
         1         45   1.1573534487624879E-01   3.2612703086640906E+01   7.1790995345622912E+00   3.4635911120208296E+00
         1         46   2.7565058648299081E-04   1.7687313543253541E+01   1.6105222720850358E+00   1.2547581550920091E+00
         1         47   1.8794108642002523E-20   9.7681629716395015E+00   2.9068383065116761E+00   1.3895151167997459E+00
         1         48   4.8660414742756123E-04   5.3825612315466529E+00   5.5035356632763921E-01   4.3719275124468632E-01
         1         49   1.8928995895556852E-07   1.3311911247072135E+00   1.5965913950263713E-02   5.6090412629610918E-02
         1         50   3.6768320058948606E-01   4.0853943690004215E+01   1.5200172456395585E+01   6.5669142323010927E+00
         1         51   5.7732616239706464E-02   1.5679358274046324E+01   3.1604199186609789E+00   1.6707509085824472E+00
         1         52   1.7601628888729915E-04   1.1741157916251334E+01   9.3539138032739155E-01   7.3549515124555054E-01
         2          1   0.0000000000000000E+00   1.2556929242168485E+01   2.2408901071126679E+00   2.9434215325686042E+00
         2          2   0.0000000000000000E+00   1.4815327781277418E+01   7.0731212469115849E+00   1.7741229198424036E+00
         2          3   0.0000000000000000E+00   9.5600040739014656E+00   1.4846276232619120E+00   2.0426348737203908E+00
         2          4   0.0000000000000000E+00   1.0549626818692815E+01   4.9380811195356920E+00   1.2713497499591575E+00
         2          5   0.0000000000000000E+00   7.4268460398020588E+00   9.8154713027207652E-01   1.4119805976158046E+00
         2          6   0.0000000000000000E+00   7.5066053011992802E+00   3.4198258891994961E+00   9.1113441584764343E-01
         2          7   0.0000000000000000E+00   3.9288244429991273E+00   3.4658768795488704E-01   5.5487295210390231E-01
         2          8   0.0000000000000000E+00   3.7353125278609651E+00   1.2765800613207359E+00   3.9199066420827822E-01
         2          9   0.0000000000000000E+00   9.5120287660472140E+00   1.2093963379162507E+00   1.7832031050972372E+00
         2         10   0.0000000000000000E+00   9.5478439521778142E+00   4.3895571112111647E+00   1.1796348377174688E+00
         2         11   0.0000000000000000E+00   1.9301062339319379E+00   8.9611358209285008E-02   1.6800000371249729E-01
         2         12   0.0000000000000000E+00   2.0004698880737881E+00   2.9177472578811031E-01   1.3054133051462258E-01
         2         13   0.0000000000000000E+00   8.0164672920816713E+00   7.8379020934033705E-01   1.2420107622241996E+00
         2         14   0.0000000000000000E+00   7.0095742602492432E+00   3.0281995417253413E+00   8.9528369902781835E-01
         2         15   0.0000000000000000E+00   7.5993986225955024E-01   1.1173276185597148E-02   3.0686494517981191E-02
         2         16   0.0000000000000000E+00   8.1338897874939675E-01   2.0116884077176926E-02   3.2648051823666618E-02
         2         17   0.0000000000000000E+00   6.4790482305347386E+00   4.4254697029568918E-01   7.7713914399717254E-01
         2         18   0.0000000000000000E+00   5.7782805422057040E+00   1.6410542955805509E+00   6.0980354826182570E-01
         2         19   0.0000000000000000E+00   4.7053001710499700E+00   1.6933248027841952E-01   3.7781560040126094E-01
         2         20   0.0000000000000000E+00   5.2221560787800678E+00   3.5539700837185556E-01   2.9449470946214229E-01
         2         21   0.0000000000000000E+00   3.6793338648329299E+00   8.0455457714804238E-02   2.3596935571227762E-01
         2         22   0.0000000000000000E+00   5.0858719400903949E+00   7.5062197007451509E-02   2.1708536040499046E-01
         2         23   0.0000000000000000E+00   1.5373117042223891E+01   8.2985782566914534E-01   1.4565720747616246E+00
         2         24   0.0000000000000000E+00   1.6065144394598036E+01   1.2807327188188848E+00   1.9990466089622938E+00
         2         25   0.0000000000000000E+00   1.4699597471189092E+01   3.0588193834041335E+00   1.6102271002158535E+00
         2         26   0.0000000000000000E+00   4.9064456488363156E+01   4.6445943146393489E+00   7.4670282564596597E+00
         2         27   0.0000000000000000E+00   3.2905503940048490E+01   2.9203961892864649E+00   4.0214916375481762E+00
         2         28   0.0000000000000000E+00   3.8028984844379188E+01   8.5761451774308703E+00   4.1245715436280328E+00
         2         29   0.0000000000000000E+00   8.3411539441807587E+00   2.0525947791181037E-01   4.0891704526182926E-01
         2         30   0.0000000000000000E+00   9.6860721038538546E+00   5.6526540458419139E-01   9.5616130139392608E-01
         2         31   0.0000000000000000E+00   7.5021361475948245E+00   1.1219088320365365E+00   6.7205812195974057E-01
         2         32   0.0000000000000000E+00   4.1613518656458119E+01   4.0199959668820311E+00   6.4179795537893884E+00
         2         33   0.0000000000000000E+00   2.6047092260590716E+01   2.2049288750517650E+00   2.9839469558440546E+00
         2         34   0.0000000000000000E+00   2.9586615441341209E+01   6.6392346260632475E+00   3.1827032619341908E+00
         2         35   0.0000000000000000E+00   4.8530231842729536E+00   2.8635913000083803E-02   9.3877860136559549E-02
         2         36   0.0000000000000000E+00   6.0842994584298280E+00   1.9943963717434893E-01   3.9150847589558807E-01
         2         37   0.0000000000000000E+00   4.5656362738248237E+00   3.1680698604966984E-01   2.4973851556137117E-01
         2         38   0.0000000000000000E+00   3.1989069210816350E+01   3.1393929821317750E+00   4.9688794367741025E+00
         2         39   0.0000000000000000E+00   1.8809195885555589E+01   1.4182631455597843E+00   1.8925415449744445E+00
         2         40   0.0000000000000000E+00   1.9873578739917583E+01   4.2850148995246444E+00   2.0880155096592214E+00
         2         41   0.0000000000000000E+00   1.2997347942695972E+01   6.6635208202805507E-01   1.1841803325789821E+00
         2         42   0.0000000000000000E+00   1.3794650658007914E+01   1.0044660165781127E+00   1.5936902507982038E+00
         2         43   0.0000000000000000E+00   1.1924395579973787E+01   2.4359223838005475E+00   1.2989364419353453E+00
         2         44   0.0000000000000000E+00   4.1650057467184709E+01   3.7821064869213994E+00   6.1415169483042211E+00
         2         45   0.0000000000000000E+00   2.7904787279409859E+01   2.3052060971562005E+00   3.2408956469819006E+00
         2         46   0.0000000000000000E+00   3.1015536183356065E+01   6.8499558654986190E+00   3.3503825429036400E+00
         2         47   0.0000000000000000E+00   4.1988624661426561E+00   2.2380498134141533E-02   7.5802797729905891E-02
         2         48   0.0000000000000000E+00   5.3347448894545142E+00   1.5423915164279345E-01   3.1197765158456853E-01
         2         49   0.0000000000000000E+00   3.9722698002882537E+00   2.4241494660601334E-01   1.9907195918463116E-01
         2         50   0.0000000000000000E+00   2.6991006859410433E+01   2.5649792949418977E+00   4.1001790484088616E+00
         2         51   0.0000000000000000E+00   1.5925582352849720E+01   1.1194270804357167E+00   1.5306188526873099E+00
         2         52   0.0000000000000000E+00   1.6757480554066063E+01   3.3990169043590575E+00   1.6892394680518821E+00
