################################################################################
# Symmetry function scaling data.
################################################################################
# Col  Name     Description
################################################################################
# 1    e_index  Element index.
# 2    sf_index Symmetry function index.
# 3    sf_min   Symmetry function minimum.
# 4    sf_max   Symmetry function maximum.
# 5    sf_mean  Symmetry function mean.
# 6    sf_sigma Symmetry function sigma.
#########################################################################################################################
#        1          2                        3                        4                        5                        6
#  e_index   sf_index                   sf_min                   sf_max                  sf_mean                 sf_sigma
#########################################################################################################################
         1          1   4.9718538067314917E+00   1.8103972532236565E+01   1.0669388601454930E+01   2.0535795190956980E+00
         1          2   8.4531572171827871E-02   9.5576784478076107E+00   2.6892722931161481E+00   1.0224740319980741E+00
         1          3   3.5924562822024746E+00   1.3974688972133201E+01   8.1237037785242112E+00   1.5860219152750468E+00
         1          4   3.6105618353810952E-02   6.9442334093932327E+00   1.7791626994061358E+00   7.3848085063733127E-01
         1          5   2.5441673961883309E+00   1.0878503661253941E+01   6.2412545549431764E+00   1.2451177778900078E+00
         1          6   1.4176803860885320E-02   5.0343579334075512E+00   1.1742802246926849E+00   5.3875800956302555E-01
         1          7   9.7497652768025855E-01   5.9884754571704226E+00   3.3447338304965295E+00   7.3394926250118719E-01
         1          8   9.0051639715332040E-04   2.2656234495310072E+00   4.1215152306379932E-01   2.5210360832571571E-01
         1          9   3.1925191739911978E+00   1.3542835267087412E+01   7.7631942691797606E+00   1.5202213666518882E+00
         1         10   1.0081151307393730E-02   6.3684023402860959E+00   1.4466216389081801E+00   6.8620979724220110E-01
         1         11   2.5547986130507833E-01   3.2735889432313057E+00   1.5792871105401749E+00   4.1753833662580314E-01
         1         12   8.3859400827712870E-06   9.5920043920116982E-01   1.0500636329854092E-01   9.4965316413706313E-02
         1         13   2.2111238724215267E+00   1.1226990001003729E+01   6.3298976906782984E+00   1.2699536274608800E+00
         1         14   1.1695275505191735E-03   4.7541213072415012E+00   9.3475984186277350E-01   5.4054901989915127E-01
         1         15   2.3511761289480449E-02   1.5122608637455794E+00   5.0610095374278230E-01   1.8233506618450487E-01
         1         16   7.3927809728348890E-10   3.7390775153289102E-01   1.2353446931945773E-02   2.0602791310204108E-02
         1         17   1.3427876053243868E+00   9.0534411390383873E+00   5.0088776667951569E+00   1.0567537237911395E+00
         1         18   1.2960132434841901E-05   3.5702188489302036E+00   5.2498563257950970E-01   4.0710484208510145E-01
         1         19   4.5319473554303180E-01   7.1015351286113297E+00   3.8787214955658986E+00   9.1678045944564546E-01
         1         20   2.5862853092906048E-11   2.7131909709756976E+00   1.9714741452770376E-01   2.5253615111964256E-01
         1         21   1.1603649203059464E-01   6.1294083707797622E+00   3.5178292973244250E+00   9.4095845989340465E-01
         1         22   5.4928487157712820E-19   2.3189267446154105E+00   9.0223181202662289E-02   1.7447249725139230E-01
         1         23   1.5825394335750915E+00   3.6740785726465745E+01   1.1365849652693008E+01   5.0014029254036521E+00
         1         24   3.4771003748103720E-02   1.8984512319141217E+01   4.3558250157712761E+00   2.1695041052889117E+00
         1         25   7.8764560129338752E-05   6.7575813197551131E+00   4.7756098760627635E-01   4.3828082427854009E-01
         1         26   6.4928415828780652E+00   8.3294384823538465E+01   2.8643867180736617E+01   1.2281422306811534E+01
         1         27   1.6825728668366952E-01   3.9173827739915367E+01   8.8251769268153559E+00   4.0905720643067038E+00
         1         28   4.6936601071010010E-04   1.7793443102884837E+01   2.0132976077347307E+00   1.4317012592151244E+00
         1         29   4.9656935389996931E-01   1.9472733881930470E+01   6.2491004306396762E+00   2.7858039523715261E+00
         1         30   8.0566335324965040E-03   1.0034788836412792E+01   1.9603839618110770E+00   1.1134362479837845E+00
         1         31   1.2268212501385607E-05   3.0346792274943701E+00   1.2326442335603754E-01   1.6243871518244840E-01
         1         32   5.5118943559498819E+00   6.6189164969865374E+01   2.3527117958683291E+01   1.0033298104075929E+01
         1         33   1.4071661793220303E-01   2.9380291999309723E+01   6.4297358728551508E+00   3.0438777773961028E+00
         1         34   4.0286966308214695E-04   1.4052189858157577E+01   1.6590010434844791E+00   1.1536265665765675E+00
         1         35   4.8640535706179405E-02   1.1195204347031405E+01   3.4388067330194834E+00   1.6070465028589880E+00
         1         36   7.4729775153116538E-04   5.1674968392386491E+00   6.6818680543719577E-01   4.9687552076889829E-01
         1         37   3.2516361434756209E-07   1.3319336548438732E+00   1.7923401756958095E-02   5.6112963504223699E-02
         1         38   4.2216501428031572E+00   4.7809023950569596E+01   1.7924900333485819E+01   7.6103741939674476E+00
         1         39   8.2323910581323906E-02   1.8925750537425209E+01   3.8921164701077271E+00   1.9583968243137782E+00
         1         40   2.9908174412365726E-04   9.5918699807698822E+00   1.1720522777128171E+00   8.0275968962392796E-01
         1         41   1.2631224971993185E+00   3.1513036723159761E+01   9.6840266631929310E+00   4.3013528952831681E+00
         1         42   2.3403539869645384E-02   1.5834795580324846E+01   3.5465548600030359E+00   1.8181371895694893E+00
         1         43   4.6052598212393784E-05   5.5468295234012093E+00   3.7945408311313256E-01   3.5728333254031891E-01
         1         44   5.2866875362641998E+00   7.1468793705534708E+01   2.4432073249918254E+01   1.0546118067295735E+01
         1         45   1.1573534487624879E-01   3.2612703086640906E+01   7.1596346468477909E+00   3.4249473280007101E+00
         1         46   2.7565058648299081E-04   1.4616523078400643E+01   1.5792555028523723E+00   1.1530399201557842E+00
         1         47   3.7874961062158298E-02   9.7681629716395015E+00   2.9190169707213496E+00   1.3844682918172428E+00
         1         48   4.8660414742756123E-04   4.4256098556672629E+00   5.4166986042899534E-01   4.1249145288210676E-01
         1         49   1.8928995895556852E-07   1.0835192622907652E+00   1.4149918410514942E-02   4.5705810235135848E-02
         1         50   3.4867858493522115E+00   4.0853943690004215E+01   1.5268713436794494E+01   6.5315258612170544E+00
         1         51   5.7732616239706464E-02   1.5679358274046324E+01   3.1422256089907203E+00   1.6313563510052145E+00
         1         52   1.7601628888729915E-04   7.8855220992483712E+00   9.1201705115417098E-01   6.4050320056336985E-01
         2          1   0.0000000000000000E+00   1.2556929242168485E+01   2.2299328349076353E+00   2.9432862667625037E+00
         2          2   2.1755363254933119E-01   1.4815327781277418E+01   7.0900827404538900E+00   1.7550894847541989E+00
         2          3   0.0000000000000000E+00   9.5600040739014656E+00   1.4752739364489718E+00   2.0404221643040690E+00
         2          4   9.1261133344834516E-02   1.0549626818692815E+01   4.9470396777375791E+00   1.2591499805624320E+00
         2          5   0.0000000000000000E+00   7.4268460398020588E+00   9.7370803139860584E-01   1.4084801383380166E+00
         2          6   3.4885686648018985E-02   7.5066053011992802E+00   3.4233299058262867E+00   9.0236743987687351E-01
         2          7   0.0000000000000000E+00   3.9288244429991273E+00   3.4175424206382582E-01   5.5004813111461326E-01
         2          8   1.9744977255985677E-03   3.1596772322481872E+00   1.2733618685148700E+00   3.8226444826476946E-01
         2          9   0.0000000000000000E+00   9.5120287660472140E+00   1.1995323420936737E+00   1.7788899087144281E+00
         2         10   2.3655071562232878E-02   9.5478439521778142E+00   4.3952183915751899E+00   1.1689881757658585E+00
         2         11   0.0000000000000000E+00   1.6513665292607516E+00   8.7070817630865771E-02   1.6298009604829727E-01
         2         12   1.7183432670858286E-05   9.9064935411712507E-01   2.8736130580285663E-01   1.1142857528701948E-01
         2         13   0.0000000000000000E+00   8.0164672920816713E+00   7.7509877651978065E-01   1.2358683959010499E+00
         2         14   2.3931214428125026E-03   7.0095742602492432E+00   3.0278293026190690E+00   8.8567367832356314E-01
         2         15   0.0000000000000000E+00   5.0484882051953217E-01   1.0243424218644199E-02   2.6575145244378474E-02
         2         16   1.4448474142013999E-09   1.3801893178934790E-01   1.7942166978057020E-02   1.1765017844635080E-02
         2         17   0.0000000000000000E+00   6.4790482305347386E+00   4.3531579265530296E-01   7.6931712382570827E-01
         2         18   2.6351558933597558E-05   4.7231770074631996E+00   1.6340864660409702E+00   5.9230076888290917E-01
         2         19   0.0000000000000000E+00   4.7053001710499700E+00   1.6347377470767821E-01   3.6623884311071925E-01
         2         20   4.3612771579975582E-11   2.3474093831244245E+00   3.4203612533041849E-01   2.2271162951224757E-01
         2         21   0.0000000000000000E+00   3.6625512743136439E+00   7.4812667630806712E-02   2.1841464589585133E-01
         2         22   9.3811915659515802E-19   1.3215319130752838E+00   6.0578188490794702E-02   8.0399634685660332E-02
         2         23   0.0000000000000000E+00   1.5373117042223891E+01   8.2708201006001492E-01   1.4564798250182878E+00
         2         24   0.0000000000000000E+00   1.3919167471901760E+01   1.2566182009048770E+00   1.9561005432747762E+00
         2         25   1.2268500732359427E-04   1.4699597471189092E+01   3.0586252464071593E+00   1.5895861197067553E+00
         2         26   0.0000000000000000E+00   4.9064456488363156E+01   4.6377325987085127E+00   7.4814566965140141E+00
         2         27   0.0000000000000000E+00   2.7626182879855101E+01   2.8741999264233113E+00   3.9422169518568806E+00
         2         28   1.1608261886180192E-03   3.8028984844379188E+01   8.5827393493018391E+00   4.0816325479642428E+00
         2         29   0.0000000000000000E+00   8.3411539441807587E+00   2.0282956506140315E-01   4.0447091200337998E-01
         2         30   0.0000000000000000E+00   7.1402228837013020E+00   5.4986351215447071E-01   9.1882301368829888E-01
         2         31   1.7122265638125896E-05   6.2572280681510994E+00   1.1170768935346549E+00   6.5090178990646319E-01
         2         32   0.0000000000000000E+00   4.1613518656458119E+01   4.0134801537099225E+00   6.4301740494315753E+00
         2         33   0.0000000000000000E+00   2.0784385087413732E+01   2.1674452376728959E+00   2.9131011891507064E+00
         2         34   1.0552634469325509E-03   2.9586615441341209E+01   6.6411909964293221E+00   3.1446198164415584E+00
         2         35   0.0000000000000000E+00   4.6391123475101077E+00   2.6872121907991826E-02   8.4150570870864042E-02
         2         36   0.0000000000000000E+00   3.2627131421934439E+00   1.8968138773335549E-01   3.5293178065588499E-01
         2         37   6.8123192389886459E-07   2.2568791225139391E+00   3.1142397537400129E-01   2.2169197435954416E-01
         2         38   0.0000000000000000E+00   3.1989069210816350E+01   3.1327491370815159E+00   4.9771985399747898E+00
         2         39   0.0000000000000000E+00   1.3438131341968989E+01   1.3894301987010491E+00   1.8265151614471065E+00
         2         40   8.8343343999274209E-04   1.9873578739917583E+01   4.2801390602388789E+00   2.0512769222924798E+00
         2         41   0.0000000000000000E+00   1.2997347942695972E+01   6.6384836765530464E-01   1.1837719071345003E+00
         2         42   0.0000000000000000E+00   1.1338403143961587E+01   9.8330092603073360E-01   1.5522208599498670E+00
         2         43   7.2263523373658291E-05   1.1924395579973787E+01   2.4341961040160487E+00   1.2791655603258911E+00
         2         44   0.0000000000000000E+00   4.1650057467184709E+01   3.7749144119973512E+00   6.1521593648779920E+00
         2         45   0.0000000000000000E+00   2.2712626275787340E+01   2.2650059345078879E+00   3.1672218498114431E+00
         2         46   7.0559956807898490E-04   3.1015536183356065E+01   6.8513284784327766E+00   3.3102553528209278E+00
         2         47   0.0000000000000000E+00   3.8560691999111709E+00   2.0950579346657925E-02   6.7581774074588249E-02
         2         48   0.0000000000000000E+00   2.6240675660626449E+00   1.4577616221331474E-01   2.7499128372176423E-01
         2         49   3.7945616246004470E-07   1.7898737179786068E+00   2.3757580641518730E-01   1.7186979903974553E-01
         2         50   0.0000000000000000E+00   2.6991006859410433E+01   2.5584295851402667E+00   4.1060925154808121E+00
         2         51   0.0000000000000000E+00   1.1152280876115690E+01   1.0945716312691276E+00   1.4706414640574461E+00
         2         52   5.4073552041452439E-04   1.6175751169667375E+01   3.3925530991809252E+00   1.6538634008612196E+00
