################################################################################
# Symmetry function scaling data.
################################################################################
# Col  Name     Description
################################################################################
# 1    e_index  Element index.
# 2    sf_index Symmetry function index.
# 3    sf_min   Symmetry function minimum.
# 4    sf_max   Symmetry function maximum.
# 5    sf_mean  Symmetry function mean.
# 6    sf_sigma Symmetry function sigma.
#########################################################################################################################
#        1          2                        3                        4                        5                        6
#  e_index   sf_index                   sf_min                   sf_max                  sf_mean                 sf_sigma
#########################################################################################################################
         1          1   2.6214660994855542E-04   2.6193944958057788E+01   1.0054938671929262E+01   4.4196220642497401E+00
         1          2   0.0000000000000000E+00   1.0469752896866614E+01   2.8448733137207625E+00   1.6576785292258143E+00
         1          3   7.7746388746700789E-05   1.9383310967309562E+01   7.6234911454564473E+00   3.1879720616420553E+00
         1          4   0.0000000000000000E+00   7.6447363144022527E+00   1.9164332891007407E+00   1.1932682659860521E+00
         1          5   2.0144878273008962E-05   1.4409531153854365E+01   5.8380243756155723E+00   2.3221681291946621E+00
         1          6   0.0000000000000000E+00   5.6066810191950136E+00   1.2928056630321851E+00   8.6659273659054825E-01
         1          7   3.5044342260335690E-07   7.0564624714666593E+00   3.1205307108560283E+00   1.1128053910783000E+00
         1          8   0.0000000000000000E+00   2.5973903859202112E+00   4.8608094266943164E-01   4.0103370619322926E-01
         1          9   7.2992898357908707E-06   1.8125398617366749E+01   7.2426407569031444E+00   2.8998305103321216E+00
         1         10   0.0000000000000000E+00   7.1426963706747131E+00   1.6042125079413607E+00   1.1011415542542389E+00
         1         11   4.0929837724259539E-10   3.2735889432313057E+00   1.4802575066487276E+00   4.9382950823478677E-01
         1         12   0.0000000000000000E+00   1.1153254825309036E+00   1.3662607903863014E-01   1.4890006050892535E-01
         1         13   1.7756829054484948E-07   1.3975015997147427E+01   5.8837069758469545E+00   2.2064621454415305E+00
         1         14   0.0000000000000000E+00   5.6130451266976982E+00   1.0884665027727292E+00   8.5941671601682990E-01
         1         15   5.5832135836207767E-16   1.5122608637455794E+00   4.7488095109361739E-01   1.6759230552012039E-01
         1         16   0.0000000000000000E+00   3.7723120700301582E-01   1.7714979158426954E-02   2.9773922061446110E-02
         1         17   1.0508361965392990E-10   1.0297976766656129E+01   4.6669079127578001E+00   1.6211124604690719E+00
         1         18   0.0000000000000000E+00   4.1716085783968229E+00   6.6408269615306503E-01   6.4462739002858371E-01
         1         19   2.1779296840269146E-20   7.6766188023463338E+00   3.6828004554279494E+00   1.1917271337803812E+00
         1         20   0.0000000000000000E+00   3.2022861282765076E+00   2.8724787438062171E-01   3.9749142152325473E-01
         1         21   2.6712977266442226E-33   6.8078460900343334E+00   3.3872550637470193E+00   1.0925079223826279E+00
         1         22   0.0000000000000000E+00   2.8310556056933041E+00   1.3922095381360394E-01   2.6573522392437593E-01
         1         23   0.0000000000000000E+00   6.1881600729541482E+01   1.1352443270164478E+01   8.8324171075964060E+00
         1         24   0.0000000000000000E+00   1.8984512319141217E+01   3.7129567775866725E+00   2.1655794389319412E+00
         1         25   0.0000000000000000E+00   8.6661234421310596E+00   6.7115016437629005E-01   9.3497687382470329E-01
         1         26   0.0000000000000000E+00   1.4212974606589441E+02   2.9081264290395591E+01   2.2163370837210174E+01
         1         27   0.0000000000000000E+00   3.9173827739915367E+01   7.3712004610034008E+00   3.9773660342116415E+00
         1         28   0.0000000000000000E+00   1.9165630359277472E+01   2.2121832539366051E+00   2.0627291372154355E+00
         1         29   0.0000000000000000E+00   3.0203165216179990E+01   5.8612592178945722E+00   4.3001355372342918E+00
         1         30   0.0000000000000000E+00   1.0034788836412792E+01   1.7563453650010652E+00   1.1233201857923265E+00
         1         31   0.0000000000000000E+00   4.0020437718922075E+00   2.2414186368806888E-01   4.2851773834338691E-01
         1         32   0.0000000000000000E+00   1.1093952089171731E+02   2.3590080238125690E+01   1.7578115738971594E+01
         1         33   0.0000000000000000E+00   2.9380291999309723E+01   5.4145890484177936E+00   2.9311307441093706E+00
         1         34   0.0000000000000000E+00   1.4501550689038629E+01   1.7651749532483831E+00   1.5590328233181070E+00
         1         35   0.0000000000000000E+00   1.3326338935478788E+01   2.9463662967378457E+00   2.0119393210952157E+00
         1         36   0.0000000000000000E+00   5.1674968392386491E+00   6.7746175084799110E-01   5.2714596097722732E-01
         1         37   0.0000000000000000E+00   1.7271211771149442E+00   5.5790531433407162E-02   1.6615534659002665E-01
         1         38   0.0000000000000000E+00   7.6971866492842011E+01   1.7510373742842152E+01   1.2519236985931020E+01
         1         39   0.0000000000000000E+00   1.8925750537425209E+01   3.3591588400301924E+00   1.8574807787176195E+00
         1         40   0.0000000000000000E+00   9.5918699807698822E+00   1.1989715556107972E+00   9.9862535619674808E-01
         1         41   0.0000000000000000E+00   5.1678256718936851E+01   9.6126773921197870E+00   7.3797757535996444E+00
         1         42   0.0000000000000000E+00   1.5834795580324846E+01   3.0389972508492686E+00   1.7951885082204411E+00
         1         43   0.0000000000000000E+00   7.1485412070645431E+00   5.3935187044865085E-01   7.6987947905966114E-01
         1         44   0.0000000000000000E+00   1.1883008949147460E+02   2.4637132974575000E+01   1.8492944316397637E+01
         1         45   0.0000000000000000E+00   3.2612703086640906E+01   6.0092665540761399E+00   3.2876762072597221E+00
         1         46   0.0000000000000000E+00   1.5808986084852123E+01   1.7449024231125798E+00   1.6647709481916331E+00
         1         47   0.0000000000000000E+00   1.1204087992823414E+01   2.4986152751017943E+00   1.6984418654643827E+00
         1         48   0.0000000000000000E+00   4.4256098556672629E+00   5.5266669067145291E-01   4.3662982378448162E-01
         1         49   0.0000000000000000E+00   1.4731244345982635E+00   4.4902954055442736E-02   1.3622023168154687E-01
         1         50   0.0000000000000000E+00   6.4581552621673197E+01   1.4834795559022355E+01   1.0461637949159725E+01
         1         51   0.0000000000000000E+00   1.5679358274046324E+01   2.7246395405381780E+00   1.5312120107036633E+00
         1         52   0.0000000000000000E+00   7.8855220992483712E+00   9.3498327633074896E-01   7.9365463019115956E-01
         2          1   0.0000000000000000E+00   1.8089281062440364E+01   1.8611244382549634E+00   2.4715929042764486E+00
         2          2   4.3318631648526533E-03   1.4815327781277418E+01   6.8999158321474336E+00   1.5139440851520323E+00
         2          3   0.0000000000000000E+00   1.2604463995127379E+01   1.2537362600395974E+00   1.7259124969602389E+00
         2          4   1.4539518315252803E-03   1.0549626818692815E+01   4.8048160600726550E+00   1.0835963348527575E+00
         2          5   0.0000000000000000E+00   8.8134009319113762E+00   8.4575724401475982E-01   1.2042412958180644E+00
         2          6   4.3225973677754750E-04   7.5066053011992802E+00   3.3156195462705944E+00   7.7256613081217884E-01
         2          7   0.0000000000000000E+00   3.9288244429991273E+00   3.1799557365487857E-01   4.8736084717063893E-01
         2          8   1.1358711840686851E-05   3.1596772322481872E+00   1.2185405074700586E+00   3.1686281591141296E-01
         2          9   0.0000000000000000E+00   1.1032205069631354E+01   1.0494805122900477E+00   1.5275660042026775E+00
         2         10   1.9717512471390374E-04   9.5478439521778142E+00   4.2574346584743630E+00   1.0050433130446834E+00
         2         11   0.0000000000000000E+00   1.6513665292607516E+00   8.9381180306121508E-02   1.5059621282108224E-01
         2         12   2.1825287287990485E-08   9.9064935411712507E-01   2.6670817457048546E-01   8.5602542546768051E-02
         2         13   0.0000000000000000E+00   8.0164672920816713E+00   7.1207796802830803E-01   1.0902748262037720E+00
         2         14   7.4425153652260071E-06   7.0095742602492432E+00   2.9105627355082371E+00   7.4598331464922352E-01
         2         15   0.0000000000000000E+00   5.0484882051953217E-01   1.1589191151645722E-02   2.4889658608503014E-02
         2         16   7.8860295675003887E-14   1.6452144993509640E-01   1.5174564358549371E-02   8.3511508368912923E-03
         2         17   0.0000000000000000E+00   6.4790482305347386E+00   4.3444484113644000E-01   7.0644657238990094E-01
         2         18   8.7889976954682193E-09   4.7231770074631996E+00   1.5356758157134571E+00   4.6716393603031131E-01
         2         19   0.0000000000000000E+00   4.7053001710499700E+00   1.8791839913158262E-01   3.5379723335556951E-01
         2         20   1.8273560469903385E-17   2.4004732624346250E+00   2.8797459975008721E-01   1.5703863253331629E-01
         2         21   0.0000000000000000E+00   3.6625512743136439E+00   9.1078754969507181E-02   2.1381520481094571E-01
         2         22   6.0433604589843526E-29   1.6034895088532746E+00   4.1945525000566773E-02   5.7457873151441283E-02
         2         23   0.0000000000000000E+00   2.0546319356094720E+01   5.4222501043954840E-01   1.2115088551666908E+00
         2         24   0.0000000000000000E+00   1.3919167471901760E+01   1.0731742357030845E+00   1.5443065176441362E+00
         2         25   0.0000000000000000E+00   1.4699597471189092E+01   2.7998699720049416E+00   1.2487766880871509E+00
         2         26   0.0000000000000000E+00   7.4327489184033695E+01   3.0834190234630201E+00   5.9249651162262262E+00
         2         27   0.0000000000000000E+00   2.7626182879855101E+01   2.6993960665160524E+00   3.3657576879387645E+00
         2         28   0.0000000000000000E+00   3.8028984844379188E+01   7.8810992208483857E+00   3.1545330544132262E+00
         2         29   0.0000000000000000E+00   8.3411539441807587E+00   1.4809885226261960E-01   3.8726735419815567E-01
         2         30   0.0000000000000000E+00   7.1402228837013020E+00   4.5624414135954677E-01   7.0744325846404099E-01
         2         31   0.0000000000000000E+00   6.2572280681510994E+00   1.0076202845523237E+00   5.0223610504892258E-01
         2         32   0.0000000000000000E+00   6.1383422387521343E+01   2.6892928652860926E+00   5.0928607537522144E+00
         2         33   0.0000000000000000E+00   2.0784385087413732E+01   2.0824659721725149E+00   2.5390605544462863E+00
         2         34   0.0000000000000000E+00   2.9586615441341209E+01   6.0888495333957646E+00   2.4097591312668509E+00
         2         35   0.0000000000000000E+00   4.6391123475101077E+00   3.2142957582700873E-02   1.2113861678518818E-01
         2         36   0.0000000000000000E+00   3.2627131421934439E+00   1.5680140184810828E-01   2.6683621839026000E-01
         2         37   0.0000000000000000E+00   2.2568791225139391E+00   2.7120064731444254E-01   1.6443538820015141E-01
         2         38   0.0000000000000000E+00   4.5324755869607685E+01   2.1361751677908463E+00   3.9596484820870934E+00
         2         39   0.0000000000000000E+00   1.3832196045292067E+01   1.3819760477019933E+00   1.6398205368813441E+00
         2         40   0.0000000000000000E+00   1.9873578739917583E+01   3.9024115972081392E+00   1.5383637972878645E+00
         2         41   0.0000000000000000E+00   1.6615094127768298E+01   4.3668301180914865E-01   9.8018386418916070E-01
         2         42   0.0000000000000000E+00   1.1338403143961587E+01   8.4378270961238633E-01   1.2263309533474562E+00
         2         43   0.0000000000000000E+00   1.1924395579973787E+01   2.2224226724942797E+00   1.0005918779669605E+00
         2         44   0.0000000000000000E+00   6.0529703672659856E+01   2.5230173041778281E+00   4.8611729016268397E+00
         2         45   0.0000000000000000E+00   2.2712626275787340E+01   2.1449489632053775E+00   2.7147085237913342E+00
         2         46   0.0000000000000000E+00   3.1015536183356065E+01   6.2751696594523647E+00   2.5500874239227542E+00
         2         47   0.0000000000000000E+00   3.8560691999111709E+00   2.5343235195776484E-02   9.6821909957716584E-02
         2         48   0.0000000000000000E+00   2.6240675660626449E+00   1.2070159146140641E-01   2.0734289675429426E-01
         2         49   0.0000000000000000E+00   1.7898737179786068E+00   2.0576099843343928E-01   1.2649472493660752E-01
         2         50   0.0000000000000000E+00   3.6993840843725550E+01   1.7538597775337843E+00   3.2603687705683870E+00
         2         51   0.0000000000000000E+00   1.1841967210740018E+01   1.0993659286197981E+00   1.3278949228339096E+00
         2         52   0.0000000000000000E+00   1.6175751169667375E+01   3.0845413793533858E+00   1.2365101658579221E+00
